# Probe 0 (0.02 1e-05 0)
# Probe 1 (0.03 1e-05 0)
# Time         0              1             
1.2e-07        -46.37311      -35.24341     
2.640002e-07   -44.91686      -33.25465     
4.368002e-07   -43.27803      -31.17569     
6.441602e-07   -40.84933      -27.38485     
8.929922e-07   -37.37119      -24.24754     
1.191591e-06   -33.25023      -22.11116     
1.549909e-06   -30.04757      -20.57694     
1.979892e-06   -27.78859      -19.42295     
2.495869e-06   -26.16255      -18.54359     
3.115041e-06   -24.97746      -17.87536     
3.858048e-06   -23.93472      -17.32218     
4.749661e-06   -22.93508      -16.82011     
5.819598e-06   -22.06162      -16.41402     
7.103517e-06   -21.57219      -16.19651     
8.644216e-06   -21.58462      -16.08372     
1.049307e-05   -21.82025      -16.06521     
1.27117e-05    -21.66667      -15.85579     
1.537405e-05   -21.89284      -15.81913     
1.856886e-05   -22.65423      -16.01241     
2.240265e-05   -23.49041      -16.43156     
2.700313e-05   -24.75808      -17.00077     
3.252375e-05   -25.90982      -17.5813      
3.91485e-05    -26.97044      -18.14279     
4.709831e-05   -27.55976      -18.57929     
5.663853e-05   -26.35809      -18.20347     
6.80868e-05    -20.36098      -15.95031     
8.182503e-05   -16.93928      -14.27937     
9.831046e-05   -18.95317      -14.50976     
0.000118093    -25.10424      -16.52834     
0.0001418292   -23.971        -17.03028     
0.0001703112   -23.57521      -16.39835     
0.0002044878   -23.87657      -16.35238     
0.0002455053   -24.21761      -16.87484     
0.0002947181   -24.31278      -17.15086     
0.0003537852   -24.01167      -16.91544     
0.0004246574   -24.22064      -17.06415     
0.0005096918   -24.86735      -17.78032     
0.0006096821   -24.86707      -18.15386     
0.0007096723   -25.02607      -18.55016     
0.0008096626   -26.48005      -19.83137     
0.0009096529   -27.56807      -21.15423     
0.001009643    -27.95329      -21.78134     
0.001109633    -26.89149      -21.67418     
0.001209624    -22.66344      -19.53267     
0.001309614    -20.0926       -17.84355     
0.001409604    -21.89877      -18.80521     
0.001509594    -29.32931      -24.10491     
0.001609585    -30.00232      -25.22389     
0.001709575    -27.34981      -23.51744     
0.001809565    -23.30974      -20.81292     
0.001909555    -22.52412      -20.1481      
0.002009546    -27.30747      -23.76777     
0.002109536    -31.98943      -27.64861     
0.002209526    -29.88182      -26.13387     
0.002309516    -26.19527      -23.45664     
0.002409507    -24.68175      -22.29913     
0.002509497    -28.38809      -25.30415     
0.002609487    -34.61215      -30.45539     
0.002709478    -32.07465      -28.34547     
0.002809468    -27.82517      -25.02137     
0.002909458    -26.26802      -23.81587     
0.003009448    -29.87499      -26.93693     
0.003109439    -36.66625      -32.5796      
0.003209429    -34.33249      -30.51882     
0.003309419    -30.3557       -27.23552     
0.003409409    -28.57712      -25.85623     
0.0035094      -31.76519      -28.68446     
0.00360939     -38.66633      -34.51282     
