/*--------------------------------*- C++ -*----------------------------------*\
| =========                 |                                                 |
| \\      /  F ield         | OpenFOAM: The Open Source CFD Toolbox           |
|  \\    /   O peration     | Version:  2312                                  |
|   \\  /    A nd           | Website:  www.openfoam.com                      |
|    \\/     M anipulation  |                                                 |
\*---------------------------------------------------------------------------*/
FoamFile
{
    version     2.0;
    format      ascii;
    arch        "LSB;label=32;scalar=64";
    class       volScalarField;
    location    "150";
    object      alphaEff.a;
}
// * * * * * * * * * * * * * * * * * * * * * * * * * * * * * * * * * * * * * //

dimensions      [0 0 0 0 0 0 0];

internalField   nonuniform List<scalar> 
200
(
0.629237
0.629211
0.629211
0.629188
0.629183
0.629164
0.629155
0.629139
0.629127
0.629112
0.6291
0.629086
0.629072
0.629059
0.629045
0.629031
0.629017
0.629003
0.628988
0.628974
0.62896
0.628945
0.62893
0.628916
0.628901
0.628886
0.628871
0.628856
0.628841
0.628826
0.62881
0.628795
0.628779
0.628764
0.628748
0.628732
0.628716
0.6287
0.628683
0.628667
0.62865
0.628634
0.628617
0.6286
0.628583
0.628566
0.628548
0.628531
0.628513
0.628495
0.628477
0.628459
0.628441
0.628423
0.628404
0.628386
0.628367
0.628348
0.628329
0.628309
0.62829
0.62827
0.62825
0.62823
0.62821
0.62819
0.628169
0.628148
0.628127
0.628106
0.628085
0.628063
0.628041
0.628019
0.627997
0.627975
0.627952
0.627929
0.627905
0.627882
0.627858
0.627834
0.62781
0.627785
0.627761
0.627735
0.62771
0.627684
0.627658
0.627632
0.627605
0.627578
0.627551
0.627523
0.627495
0.627467
0.627438
0.627409
0.627379
0.627349
0.627319
0.627288
0.627256
0.627225
0.627192
0.62716
0.627127
0.627093
0.627059
0.627024
0.626989
0.626953
0.626916
0.626879
0.626842
0.626803
0.626765
0.626725
0.626685
0.626644
0.626602
0.62656
0.626516
0.626472
0.626427
0.626382
0.626335
0.626288
0.626239
0.62619
0.62614
0.626089
0.626036
0.625983
0.625928
0.625873
0.625816
0.625758
0.625699
0.625638
0.625577
0.625514
0.625449
0.625383
0.625316
0.625247
0.625176
0.625104
0.625031
0.624955
0.624878
0.624799
0.624718
0.624635
0.62455
0.624463
0.624374
0.624283
0.624189
0.624093
0.623994
0.623892
0.623788
0.623681
0.623571
0.623458
0.62334
0.62322
0.623096
0.622967
0.622835
0.622697
0.622554
0.622405
0.62225
0.622089
0.621918
0.621739
0.621549
0.621346
0.621129
0.620891
0.620631
0.620337
0.620008
0.61962
0.619164
0.618642
0.617753
0.617065
0.615904
0.308882
0.0199663
0.00235696
0.000292224
4.47869e-05
1.44278e-05
1.06105e-05
1.015e-05
1.00893e-05
)
;

boundaryField
{
    inlet
    {
        type            cyclic;
    }
    outlet
    {
        type            cyclic;
    }
    top
    {
        type            calculated;
        value           uniform 1.00893e-05;
    }
    bottom
    {
        type            calculated;
        value           uniform 0.629237;
    }
    backPlane
    {
        type            empty;
    }
    frontPlane
    {
        type            empty;
    }
}


// ************************************************************************* //
