/*--------------------------------*- C++ -*----------------------------------*\
| =========                 |                                                 |
| \\      /  F ield         | OpenFOAM: The Open Source CFD Toolbox           |
|  \\    /   O peration     | Version:  2312                                  |
|   \\  /    A nd           | Website:  www.openfoam.com                      |
|    \\/     M anipulation  |                                                 |
\*---------------------------------------------------------------------------*/
FoamFile
{
    version     2.0;
    format      ascii;
    arch        "LSB;label=32;scalar=64";
    class       volScalarField;
    location    "150";
    object      alpha.b;
}
// * * * * * * * * * * * * * * * * * * * * * * * * * * * * * * * * * * * * * //

dimensions      [0 0 0 0 0 0 0];

internalField   nonuniform List<scalar> 
200
(
0.371142
0.371171
0.371171
0.371198
0.371204
0.371226
0.371235
0.371255
0.371267
0.371285
0.371299
0.371316
0.371331
0.371347
0.371362
0.371378
0.371395
0.371411
0.371427
0.371443
0.37146
0.371476
0.371493
0.37151
0.371527
0.371544
0.371561
0.371578
0.371596
0.371613
0.371631
0.371648
0.371666
0.371684
0.371702
0.37172
0.371738
0.371756
0.371775
0.371794
0.371813
0.371831
0.371851
0.37187
0.371889
0.371908
0.371928
0.371948
0.371968
0.371988
0.372008
0.372028
0.372049
0.372069
0.37209
0.372111
0.372132
0.372153
0.372175
0.372196
0.372218
0.37224
0.372262
0.372285
0.372307
0.37233
0.372353
0.372376
0.372399
0.372422
0.372446
0.37247
0.372494
0.372518
0.372543
0.372567
0.372593
0.372617
0.372643
0.372669
0.372694
0.372721
0.372747
0.372774
0.3728
0.372828
0.372855
0.372883
0.372911
0.372939
0.372967
0.372996
0.373025
0.373055
0.373084
0.373114
0.373145
0.373175
0.373207
0.373238
0.37327
0.373302
0.373334
0.373367
0.3734
0.373434
0.373468
0.373502
0.373537
0.373572
0.373608
0.373644
0.37368
0.373717
0.373754
0.373793
0.373831
0.37387
0.373909
0.373949
0.37399
0.374031
0.374073
0.374115
0.374158
0.374201
0.374246
0.37429
0.374336
0.374381
0.374429
0.374476
0.374524
0.374573
0.374623
0.374674
0.374725
0.374778
0.374831
0.374885
0.37494
0.374996
0.375053
0.375112
0.375171
0.375231
0.375293
0.375356
0.375419
0.375485
0.375552
0.37562
0.37569
0.375761
0.375834
0.375908
0.375985
0.376063
0.376144
0.376226
0.376311
0.376399
0.376488
0.376581
0.376676
0.376775
0.376877
0.376982
0.377092
0.377206
0.377324
0.377447
0.377576
0.377711
0.377853
0.378002
0.378161
0.378328
0.378506
0.378698
0.378903
0.379128
0.379374
0.379651
0.379961
0.380322
0.380757
0.381224
0.382064
0.382795
0.384753
0.633257
0.957515
0.996325
0.999674
0.999968
0.999996
1
1
1
)
;

boundaryField
{
    inlet
    {
        type            cyclic;
    }
    outlet
    {
        type            cyclic;
    }
    top
    {
        type            calculated;
        value           uniform 1;
    }
    bottom
    {
        type            calculated;
        value           uniform 0.371142;
    }
    backPlane
    {
        type            empty;
    }
    frontPlane
    {
        type            empty;
    }
}


// ************************************************************************* //
