/*--------------------------------*- C++ -*----------------------------------*\
| =========                 |                                                 |
| \\      /  F ield         | OpenFOAM: The Open Source CFD Toolbox           |
|  \\    /   O peration     | Version:  2312                                  |
|   \\  /    A nd           | Website:  www.openfoam.com                      |
|    \\/     M anipulation  |                                                 |
\*---------------------------------------------------------------------------*/
FoamFile
{
    version     2.0;
    format      ascii;
    arch        "LSB;label=32;scalar=64";
    class       volScalarField;
    location    "150";
    object      alpha.a;
}
// * * * * * * * * * * * * * * * * * * * * * * * * * * * * * * * * * * * * * //

dimensions      [0 0 0 0 0 0 0];

internalField   nonuniform List<scalar> 
200
(
0.628858
0.628829
0.628829
0.628802
0.628796
0.628774
0.628765
0.628745
0.628733
0.628715
0.628701
0.628684
0.628669
0.628653
0.628638
0.628622
0.628605
0.628589
0.628573
0.628557
0.62854
0.628524
0.628507
0.62849
0.628473
0.628456
0.628439
0.628422
0.628404
0.628387
0.628369
0.628352
0.628334
0.628316
0.628298
0.62828
0.628262
0.628244
0.628225
0.628206
0.628187
0.628169
0.628149
0.62813
0.628111
0.628092
0.628072
0.628052
0.628032
0.628012
0.627992
0.627972
0.627951
0.627931
0.62791
0.627889
0.627868
0.627847
0.627825
0.627804
0.627782
0.62776
0.627738
0.627715
0.627693
0.62767
0.627647
0.627624
0.627601
0.627578
0.627554
0.62753
0.627506
0.627482
0.627457
0.627433
0.627407
0.627383
0.627357
0.627331
0.627306
0.627279
0.627253
0.627226
0.6272
0.627172
0.627145
0.627117
0.627089
0.627061
0.627033
0.627004
0.626975
0.626945
0.626916
0.626886
0.626855
0.626825
0.626793
0.626762
0.62673
0.626698
0.626666
0.626633
0.6266
0.626566
0.626532
0.626498
0.626463
0.626428
0.626392
0.626356
0.62632
0.626283
0.626246
0.626207
0.626169
0.62613
0.626091
0.626051
0.62601
0.625969
0.625927
0.625885
0.625842
0.625799
0.625754
0.62571
0.625664
0.625619
0.625571
0.625524
0.625476
0.625427
0.625377
0.625326
0.625275
0.625222
0.625169
0.625115
0.62506
0.625004
0.624947
0.624888
0.624829
0.624769
0.624707
0.624644
0.624581
0.624515
0.624448
0.62438
0.62431
0.624239
0.624166
0.624092
0.624015
0.623937
0.623856
0.623774
0.623689
0.623601
0.623512
0.623419
0.623324
0.623225
0.623123
0.623018
0.622908
0.622794
0.622676
0.622553
0.622424
0.622289
0.622147
0.621998
0.621839
0.621672
0.621494
0.621302
0.621097
0.620872
0.620626
0.620349
0.620039
0.619678
0.619243
0.618776
0.617936
0.617205
0.615247
0.366743
0.0424847
0.00367473
0.000326001
3.19201e-05
3.55551e-06
4.80197e-07
1.20844e-07
7.15363e-08
)
;

boundaryField
{
    inlet
    {
        type            cyclic;
    }
    outlet
    {
        type            cyclic;
    }
    top
    {
        type            zeroGradient;
    }
    bottom
    {
        type            zeroGradient;
    }
    backPlane
    {
        type            empty;
    }
    frontPlane
    {
        type            empty;
    }
}


// ************************************************************************* //
