/*--------------------------------*- C++ -*----------------------------------*\
| =========                 |                                                 |
| \\      /  F ield         | OpenFOAM: The Open Source CFD Toolbox           |
|  \\    /   O peration     | Version:  2312                                  |
|   \\  /    A nd           | Website:  www.openfoam.com                      |
|    \\/     M anipulation  |                                                 |
\*---------------------------------------------------------------------------*/
FoamFile
{
    version     2.0;
    format      ascii;
    arch        "LSB;label=32;scalar=64";
    class       volScalarField;
    location    "150";
    object      muEff;
}
// * * * * * * * * * * * * * * * * * * * * * * * * * * * * * * * * * * * * * //

dimensions      [1 -1 -1 0 0 0 0];

internalField   nonuniform List<scalar> 
200
(
1.17371
1.17236
1.17235
1.17116
1.17089
1.16986
1.16944
1.16855
1.16801
1.1672
1.16658
1.16582
1.16515
1.16442
1.16372
1.163
1.16228
1.16156
1.16083
1.1601
1.15936
1.15863
1.15789
1.15715
1.15639
1.15565
1.15488
1.15413
1.15336
1.1526
1.15182
1.15105
1.15026
1.14949
1.14869
1.14791
1.1471
1.14631
1.14549
1.1447
1.14387
1.14306
1.14223
1.14141
1.14056
1.13974
1.13889
1.13805
1.13719
1.13634
1.13547
1.13461
1.13373
1.13286
1.13197
1.13108
1.13018
1.12929
1.12838
1.12747
1.12656
1.12563
1.1247
1.12376
1.12282
1.12188
1.12092
1.11996
1.119
1.11802
1.11704
1.11606
1.11506
1.11406
1.11305
1.11205
1.11102
1.10999
1.10895
1.10791
1.10686
1.10579
1.10473
1.10364
1.10257
1.10147
1.10038
1.09926
1.09814
1.09701
1.09588
1.09473
1.09357
1.09241
1.09123
1.09005
1.08885
1.08765
1.08643
1.0852
1.08396
1.08272
1.08145
1.08019
1.07889
1.07761
1.07629
1.07497
1.07364
1.07229
1.07094
1.06956
1.06818
1.06677
1.06537
1.06393
1.0625
1.06103
1.05956
1.05807
1.05656
1.05505
1.0535
1.05196
1.05037
1.04879
1.04717
1.04556
1.0439
1.04224
1.04054
1.03885
1.0371
1.03537
1.03358
1.0318
1.02997
1.02813
1.02626
1.02436
1.02245
1.0205
1.01852
1.01652
1.01449
1.01242
1.01033
1.0082
1.00604
1.00384
1.00161
0.999334
0.997024
0.994671
0.992274
0.989834
0.987342
0.984809
0.982213
0.979571
0.976867
0.974097
0.97127
0.96837
0.965391
0.962351
0.959198
0.955979
0.952658
0.949215
0.945686
0.942009
0.938211
0.934259
0.930139
0.925866
0.921353
0.916642
0.911664
0.906376
0.900772
0.894698
0.888172
0.880914
0.872955
0.863833
0.853094
0.841874
0.82236
0.806105
0.765486
0.0895971
0.0323587
0.0293268
0.029082
0.0290606
0.0290586
0.0290583
0.0290583
0.0290583
)
;

boundaryField
{
    inlet
    {
        type            cyclic;
    }
    outlet
    {
        type            cyclic;
    }
    top
    {
        type            calculated;
        value           uniform 0.0290583;
    }
    bottom
    {
        type            calculated;
        value           uniform 1.17371;
    }
    backPlane
    {
        type            empty;
    }
    frontPlane
    {
        type            empty;
    }
}


// ************************************************************************* //
