/*--------------------------------*- C++ -*----------------------------------*\
| =========                 |                                                 |
| \\      /  F ield         | OpenFOAM: The Open Source CFD Toolbox           |
|  \\    /   O peration     | Version:  2312                                  |
|   \\  /    A nd           | Website:  www.openfoam.com                      |
|    \\/     M anipulation  |                                                 |
\*---------------------------------------------------------------------------*/
FoamFile
{
    version     2.0;
    format      ascii;
    arch        "LSB;label=32;scalar=64";
    class       volScalarField;
    location    "150";
    object      muFra;
}
// * * * * * * * * * * * * * * * * * * * * * * * * * * * * * * * * * * * * * //

dimensions      [1 -1 -1 0 0 0 0];

internalField   nonuniform List<scalar> 
200
(
1.76346e+07
1.42373e+07
1.53245e+07
1.53721e+07
1.50509e+07
1.48888e+07
1.46911e+07
1.4532e+07
1.43209e+07
1.41757e+07
1.39632e+07
1.38183e+07
1.36184e+07
1.34657e+07
1.32788e+07
1.31214e+07
1.2944e+07
1.27835e+07
1.26151e+07
1.24533e+07
1.22906e+07
1.21304e+07
1.19711e+07
1.1814e+07
1.1658e+07
1.15032e+07
1.13509e+07
1.11988e+07
1.10486e+07
1.09012e+07
1.07517e+07
1.06088e+07
1.04618e+07
1.03208e+07
1.01783e+07
1.00384e+07
9.89949e+06
9.76285e+06
9.6253e+06
9.49275e+06
9.3573e+06
9.22699e+06
9.09541e+06
8.96657e+06
8.83815e+06
8.71226e+06
8.58578e+06
8.4628e+06
8.33938e+06
8.21791e+06
8.09802e+06
7.97889e+06
7.86068e+06
7.74564e+06
7.62844e+06
7.51643e+06
7.40256e+06
7.29094e+06
7.18206e+06
7.07081e+06
6.96521e+06
6.85687e+06
6.7522e+06
6.64802e+06
6.54419e+06
6.44331e+06
6.34161e+06
6.24259e+06
6.14414e+06
6.04637e+06
5.95107e+06
5.85518e+06
5.76203e+06
5.66897e+06
5.57722e+06
5.48739e+06
5.39686e+06
5.31015e+06
5.22121e+06
5.13673e+06
5.05073e+06
4.96692e+06
4.88502e+06
4.80149e+06
4.72301e+06
4.64132e+06
4.56419e+06
4.48612e+06
4.40943e+06
4.33465e+06
4.25971e+06
4.18651e+06
4.11442e+06
4.04281e+06
3.97259e+06
3.90362e+06
3.83487e+06
3.76803e+06
3.70167e+06
3.63618e+06
3.57217e+06
3.50904e+06
3.44591e+06
3.38589e+06
3.32423e+06
3.26564e+06
3.2071e+06
3.1492e+06
3.09331e+06
3.03723e+06
2.98279e+06
2.92927e+06
2.87625e+06
2.82438e+06
2.77411e+06
2.7231e+06
2.67516e+06
2.62621e+06
2.57937e+06
2.53314e+06
2.48729e+06
2.44341e+06
2.39925e+06
2.35691e+06
2.31477e+06
2.27427e+06
2.23372e+06
2.19504e+06
2.15642e+06
2.11912e+06
2.08262e+06
2.04711e+06
2.01194e+06
1.97855e+06
1.94496e+06
1.91326e+06
1.88173e+06
1.85121e+06
1.82203e+06
1.79278e+06
1.76537e+06
1.73842e+06
1.71213e+06
1.68696e+06
1.66273e+06
1.63936e+06
1.61655e+06
1.59485e+06
1.5745e+06
1.55416e+06
1.53538e+06
1.51735e+06
1.50012e+06
1.48391e+06
1.46861e+06
1.45421e+06
1.44082e+06
1.42863e+06
1.4169e+06
1.40663e+06
1.39713e+06
1.38821e+06
1.381e+06
1.37446e+06
1.36914e+06
1.36531e+06
1.361e+06
1.35928e+06
1.35868e+06
1.3581e+06
1.36048e+06
1.36304e+06
1.36724e+06
1.37243e+06
1.38017e+06
1.39102e+06
1.40206e+06
1.41639e+06
1.43422e+06
1.45409e+06
1.47933e+06
1.5039e+06
1.52657e+06
1.5351e+06
1.53319e+06
1.45126e+06
1.39231e+06
1.18417e+06
710473
339865
1461.59
370.719
4957.59
3803.37
2742.55
7293.15
3544.42
1048.93
199.935
56.7253
)
;

boundaryField
{
    inlet
    {
        type            cyclic;
    }
    outlet
    {
        type            cyclic;
    }
    top
    {
        type            calculated;
        value           uniform 37.0291;
    }
    bottom
    {
        type            calculated;
        value           uniform 2.33776e+07;
    }
    backPlane
    {
        type            empty;
    }
    frontPlane
    {
        type            empty;
    }
}


// ************************************************************************* //
