/*--------------------------------*- C++ -*----------------------------------*\
| =========                 |                                                 |
| \\      /  F ield         | OpenFOAM: The Open Source CFD Toolbox           |
|  \\    /   O peration     | Version:  2312                                  |
|   \\  /    A nd           | Website:  www.openfoam.com                      |
|    \\/     M anipulation  |                                                 |
\*---------------------------------------------------------------------------*/
FoamFile
{
    version     2.0;
    format      ascii;
    arch        "LSB;label=32;scalar=64";
    class       volScalarField;
    location    "150";
    object      nuEffb;
}
// * * * * * * * * * * * * * * * * * * * * * * * * * * * * * * * * * * * * * //

dimensions      [0 2 -1 0 0 0 0];

internalField   nonuniform List<scalar> 
200
(
0.00270988
0.00270654
0.00270651
0.00270359
0.00270291
0.00270039
0.00269935
0.00269713
0.00269581
0.00269381
0.00269228
0.00269041
0.00268875
0.00268696
0.00268522
0.00268345
0.00268166
0.00267989
0.00267808
0.00267629
0.00267447
0.00267266
0.00267082
0.00266899
0.00266713
0.00266529
0.0026634
0.00266155
0.00265964
0.00265777
0.00265583
0.00265395
0.00265199
0.00265009
0.00264811
0.00264619
0.00264419
0.00264224
0.00264022
0.00263826
0.00263621
0.00263422
0.00263216
0.00263015
0.00262806
0.00262602
0.00262392
0.00262185
0.00261972
0.00261763
0.00261548
0.00261336
0.00261119
0.00260904
0.00260684
0.00260466
0.00260244
0.00260022
0.002598
0.00259574
0.00259349
0.0025912
0.00258891
0.0025866
0.00258428
0.00258194
0.00257959
0.00257722
0.00257484
0.00257243
0.00257002
0.00256758
0.00256513
0.00256267
0.00256017
0.00255768
0.00255514
0.00255262
0.00255004
0.00254748
0.00254488
0.00254226
0.00253964
0.00253696
0.00253432
0.00253158
0.0025289
0.00252613
0.00252339
0.00252059
0.00251779
0.00251496
0.00251211
0.00250923
0.00250633
0.00250341
0.00250045
0.00249749
0.00249448
0.00249146
0.00248839
0.00248534
0.0024822
0.00247909
0.00247589
0.00247272
0.00246949
0.00246623
0.00246295
0.00245962
0.00245628
0.00245289
0.00244948
0.00244601
0.00244256
0.002439
0.00243547
0.00243185
0.00242823
0.00242456
0.00242083
0.0024171
0.00241328
0.00240948
0.00240556
0.00240168
0.00239767
0.00239369
0.0023896
0.00238552
0.00238133
0.00237715
0.00237285
0.00236857
0.00236417
0.00235977
0.00235527
0.00235073
0.00234613
0.00234145
0.00233673
0.00233192
0.00232706
0.00232212
0.00231711
0.00231203
0.00230687
0.00230161
0.0022963
0.00229087
0.00228538
0.00227977
0.00227408
0.00226828
0.00226238
0.00225636
0.00225023
0.00224399
0.00223759
0.00223108
0.00222442
0.0022176
0.00221064
0.0022035
0.00219616
0.00218867
0.00218091
0.00217298
0.00216481
0.00215633
0.00214764
0.00213859
0.00212924
0.00211951
0.00210937
0.00209886
0.00208775
0.00207616
0.00206391
0.0020509
0.00203712
0.00202218
0.00200613
0.00198828
0.00196871
0.00194629
0.0019199
0.00189233
0.0018444
0.00180449
0.00170484
0.000121239
2.89584e-05
2.52227e-05
2.49284e-05
2.49028e-05
2.49003e-05
2.49e-05
2.49e-05
2.49e-05
)
;

boundaryField
{
    inlet
    {
        type            cyclic;
    }
    outlet
    {
        type            cyclic;
    }
    top
    {
        type            calculated;
        value           uniform 2.49e-05;
    }
    bottom
    {
        type            calculated;
        value           uniform 0.00270988;
    }
    backPlane
    {
        type            empty;
    }
    frontPlane
    {
        type            empty;
    }
}


// ************************************************************************* //
