/*--------------------------------*- C++ -*----------------------------------*\
| =========                 |                                                 |
| \\      /  F ield         | OpenFOAM: The Open Source CFD Toolbox           |
|  \\    /   O peration     | Version:  2312                                  |
|   \\  /    A nd           | Website:  www.openfoam.com                      |
|    \\/     M anipulation  |                                                 |
\*---------------------------------------------------------------------------*/
FoamFile
{
    version     2.0;
    format      ascii;
    arch        "LSB;label=32;scalar=64";
    class       volScalarField;
    location    "150";
    object      pa;
}
// * * * * * * * * * * * * * * * * * * * * * * * * * * * * * * * * * * * * * //

dimensions      [1 -1 -2 0 0 0 0];

internalField   nonuniform List<scalar> 
200
(
0.253907
0.358933
0.436445
0.416709
0.419919
0.42577
0.423177
0.419839
0.413379
0.406185
0.399494
0.39167
0.384481
0.377614
0.37117
0.365469
0.360667
0.356259
0.352243
0.348654
0.345449
0.342521
0.339708
0.33689
0.334027
0.331127
0.328214
0.325305
0.322411
0.319542
0.316709
0.313929
0.311221
0.308596
0.306045
0.303553
0.301114
0.29874
0.296445
0.29423
0.292091
0.290021
0.288017
0.286069
0.284174
0.282325
0.280522
0.278766
0.277061
0.275407
0.273801
0.272237
0.270712
0.26922
0.267755
0.266315
0.264899
0.263506
0.262137
0.26079
0.259466
0.258163
0.256878
0.255613
0.254364
0.253132
0.251914
0.250711
0.249524
0.248353
0.2472
0.246063
0.244943
0.243837
0.242745
0.241665
0.2406
0.239551
0.238517
0.237496
0.236487
0.235491
0.234506
0.233534
0.232575
0.231628
0.230694
0.229774
0.228865
0.227967
0.227079
0.226196
0.225321
0.22445
0.223582
0.222719
0.221861
0.221011
0.22017
0.219341
0.218522
0.217713
0.216914
0.216121
0.215334
0.214549
0.213768
0.212991
0.212219
0.211453
0.210692
0.209939
0.209192
0.208453
0.207721
0.206996
0.206277
0.205566
0.204862
0.204165
0.203475
0.202794
0.202121
0.201461
0.200815
0.200184
0.199556
0.198912
0.198234
0.197535
0.196841
0.196169
0.195517
0.194874
0.194236
0.193599
0.192964
0.192332
0.191702
0.191075
0.19045
0.189826
0.189204
0.188582
0.187962
0.187343
0.186725
0.186109
0.185493
0.184879
0.184266
0.183653
0.183039
0.182424
0.181806
0.181185
0.180559
0.179928
0.179292
0.178651
0.178005
0.177357
0.176707
0.176058
0.175412
0.174772
0.174138
0.173508
0.172881
0.17226
0.171656
0.171088
0.170591
0.17024
0.170176
0.170664
0.172167
0.175462
0.181756
0.192816
0.211022
0.239294
0.280796
0.338369
0.413773
0.506719
0.612954
0.718919
0.79068
0.764511
0.56337
0.497823
0.537215
0.543659
0.544132
0.544212
0.544239
0.544243
0.544243
0.544242
)
;

boundaryField
{
    inlet
    {
        type            cyclic;
    }
    outlet
    {
        type            cyclic;
    }
    top
    {
        type            slip;
    }
    bottom
    {
        type            zeroGradient;
    }
    backPlane
    {
        type            empty;
    }
    frontPlane
    {
        type            empty;
    }
}


// ************************************************************************* //
