/*--------------------------------*- C++ -*----------------------------------*\
| =========                 |                                                 |
| \\      /  F ield         | OpenFOAM: The Open Source CFD Toolbox           |
|  \\    /   O peration     | Version:  2312                                  |
|   \\  /    A nd           | Website:  www.openfoam.com                      |
|    \\/     M anipulation  |                                                 |
\*---------------------------------------------------------------------------*/
FoamFile
{
    version     2.0;
    format      ascii;
    arch        "LSB;label=32;scalar=64";
    class       volScalarField;
    location    "150";
    object      pff;
}
// * * * * * * * * * * * * * * * * * * * * * * * * * * * * * * * * * * * * * //

dimensions      [1 -1 -2 0 0 0 0];

internalField   nonuniform List<scalar> 
200
(
549.359
543.681
543.636
538.688
537.548
533.324
531.595
527.904
525.715
522.418
519.906
516.86
514.156
511.245
508.44
505.593
502.741
499.915
497.049
494.224
491.353
488.525
485.652
482.822
479.946
477.116
474.234
471.407
468.514
465.695
462.79
459.976
457.063
454.249
451.335
448.515
445.6
442.779
439.859
437.037
434.114
431.287
428.366
425.53
422.613
419.77
416.853
414.004
411.09
408.231
405.321
402.456
399.543
396.676
393.762
390.887
387.982
385.086
382.198
379.283
376.402
373.484
370.594
367.683
364.779
361.875
358.963
356.056
353.146
350.231
347.322
344.404
341.489
338.576
335.647
332.745
329.801
326.904
323.956
321.05
318.116
315.183
312.275
309.313
306.422
303.45
300.552
297.593
294.673
291.729
288.795
285.855
282.917
279.977
277.032
274.099
271.144
268.214
265.257
262.325
259.364
256.439
253.464
250.549
247.571
244.645
241.685
238.738
235.795
232.837
229.898
226.939
224.003
221.035
218.114
215.134
212.218
209.247
206.315
203.368
200.414
197.49
194.525
191.61
188.644
185.735
182.771
179.865
176.909
174
171.055
168.151
165.207
162.312
159.374
156.48
153.561
150.657
147.763
144.854
141.972
139.078
136.195
133.315
130.442
127.572
124.71
121.845
119.004
116.144
113.312
110.472
107.644
104.82
102.003
99.1933
96.3857
93.5931
90.7948
88.0129
85.2327
82.4545
79.6894
76.9266
74.1649
71.4232
68.662
65.9259
63.1906
60.4458
57.7266
54.9917
52.2704
49.5472
46.8231
44.1175
41.3896
38.6779
35.9595
33.2303
30.51
27.7522
25.0006
22.1838
19.3726
16.4848
13.5066
10.8385
7.14446
4.84997
1.45498
0
0
0
0
0
0
0
0
0
)
;

boundaryField
{
    inlet
    {
        type            cyclic;
    }
    outlet
    {
        type            cyclic;
    }
    top
    {
        type            calculated;
        value           uniform 0;
    }
    bottom
    {
        type            calculated;
        value           uniform 549.359;
    }
    backPlane
    {
        type            empty;
    }
    frontPlane
    {
        type            empty;
    }
}


// ************************************************************************* //
