/*--------------------------------*- C++ -*----------------------------------*\
| =========                 |                                                 |
| \\      /  F ield         | OpenFOAM: The Open Source CFD Toolbox           |
|  \\    /   O peration     | Version:  2312                                  |
|   \\  /    A nd           | Website:  www.openfoam.com                      |
|    \\/     M anipulation  |                                                 |
\*---------------------------------------------------------------------------*/
FoamFile
{
    version     2.0;
    format      ascii;
    arch        "LSB;label=32;scalar=64";
    class       surfaceScalarField;
    location    "150";
    object      phi.a;
}
// * * * * * * * * * * * * * * * * * * * * * * * * * * * * * * * * * * * * * //

dimensions      [0 3 -1 0 0 0 0];

oriented        oriented;

internalField   nonuniform List<scalar> 
199
(
-1.65046e-11
-3.31914e-11
-4.99919e-11
-6.68578e-11
-8.39225e-11
-1.0103e-10
-1.18336e-10
-1.35698e-10
-1.53249e-10
-1.70869e-10
-1.88667e-10
-2.06551e-10
-2.24601e-10
-2.42752e-10
-2.61058e-10
-2.79481e-10
-2.98051e-10
-3.16748e-10
-3.35587e-10
-3.54563e-10
-3.73678e-10
-3.92935e-10
-4.12334e-10
-4.31876e-10
-4.51562e-10
-4.71396e-10
-4.91375e-10
-5.11505e-10
-5.31784e-10
-5.52214e-10
-5.72799e-10
-5.93535e-10
-6.14429e-10
-6.35479e-10
-6.56686e-10
-6.78056e-10
-6.99584e-10
-7.21277e-10
-7.43134e-10
-7.65155e-10
-7.87345e-10
-8.09703e-10
-8.32231e-10
-8.54932e-10
-8.77805e-10
-9.00853e-10
-9.24078e-10
-9.4748e-10
-9.71061e-10
-9.94825e-10
-1.01877e-09
-1.0429e-09
-1.06722e-09
-1.09172e-09
-1.11641e-09
-1.14129e-09
-1.16637e-09
-1.19164e-09
-1.2171e-09
-1.24276e-09
-1.26862e-09
-1.29468e-09
-1.32094e-09
-1.34741e-09
-1.37408e-09
-1.40095e-09
-1.42804e-09
-1.45533e-09
-1.48283e-09
-1.51055e-09
-1.53848e-09
-1.56663e-09
-1.59499e-09
-1.62357e-09
-1.65237e-09
-1.68139e-09
-1.71063e-09
-1.7401e-09
-1.76979e-09
-1.7997e-09
-1.82985e-09
-1.86022e-09
-1.89081e-09
-1.92164e-09
-1.9527e-09
-1.98399e-09
-2.01551e-09
-2.04726e-09
-2.07924e-09
-2.11146e-09
-2.14391e-09
-2.17659e-09
-2.20951e-09
-2.24266e-09
-2.27604e-09
-2.30965e-09
-2.3435e-09
-2.37757e-09
-2.41188e-09
-2.44641e-09
-2.48117e-09
-2.51615e-09
-2.55137e-09
-2.58679e-09
-2.62245e-09
-2.65831e-09
-2.69439e-09
-2.73069e-09
-2.76718e-09
-2.80389e-09
-2.84079e-09
-2.87788e-09
-2.91517e-09
-2.95264e-09
-2.99029e-09
-3.02812e-09
-3.0661e-09
-3.10425e-09
-3.14255e-09
-3.181e-09
-3.21958e-09
-3.25828e-09
-3.29711e-09
-3.33604e-09
-3.37507e-09
-3.41418e-09
-3.45336e-09
-3.4926e-09
-3.53189e-09
-3.57122e-09
-3.61055e-09
-3.64989e-09
-3.68922e-09
-3.72851e-09
-3.76776e-09
-3.80693e-09
-3.84602e-09
-3.885e-09
-3.92385e-09
-3.96255e-09
-4.00108e-09
-4.0394e-09
-4.07751e-09
-4.11536e-09
-4.15295e-09
-4.19023e-09
-4.22719e-09
-4.26379e-09
-4.3e-09
-4.33581e-09
-4.37117e-09
-4.40605e-09
-4.44043e-09
-4.47428e-09
-4.50756e-09
-4.54025e-09
-4.5723e-09
-4.6037e-09
-4.63441e-09
-4.6644e-09
-4.69363e-09
-4.7221e-09
-4.74976e-09
-4.77658e-09
-4.80255e-09
-4.82762e-09
-4.85181e-09
-4.87505e-09
-4.89735e-09
-4.91868e-09
-4.93902e-09
-4.95836e-09
-4.97669e-09
-4.99399e-09
-5.01026e-09
-5.02546e-09
-5.03961e-09
-5.05269e-09
-5.06471e-09
-5.07566e-09
-5.08554e-09
-5.09439e-09
-5.10225e-09
-5.10919e-09
-5.1153e-09
-5.12082e-09
-5.12551e-09
-5.13028e-09
-5.13527e-09
-5.14277e-09
-5.82987e-09
-6.52681e-09
-6.41626e-09
-6.42024e-09
-6.36593e-09
-6.31414e-09
-6.24809e-09
-5.96389e-09
-4.70691e-09
)
;

boundaryField
{
    inlet
    {
        type            cyclic;
        value           nonuniform List<scalar> 
200
(
1.46814e-28
4.41512e-28
7.34128e-28
1.03014e-27
1.32156e-27
1.6196e-27
1.99139e-27
2.36906e-27
2.73917e-27
3.11691e-27
3.48631e-27
3.86396e-27
4.23213e-27
4.60968e-27
4.97603e-27
5.35379e-27
5.71766e-27
6.09581e-27
6.45707e-27
6.83471e-27
7.19555e-27
7.57177e-27
7.93666e-27
8.31382e-27
8.68527e-27
9.06946e-27
9.44434e-27
9.84024e-27
1.021e-26
1.06205e-26
1.09807e-26
1.14059e-26
1.17684e-26
1.21947e-26
1.25705e-26
1.29854e-26
1.33706e-26
1.37785e-26
1.41666e-26
1.45727e-26
1.49594e-26
1.53608e-26
1.57468e-26
1.61419e-26
1.65275e-26
1.69177e-26
1.73009e-26
1.76865e-26
1.8067e-26
1.84482e-26
1.88254e-26
1.92024e-26
1.95761e-26
1.99487e-26
2.03187e-26
2.06868e-26
2.10529e-26
2.14163e-26
2.17782e-26
2.21369e-26
2.2494e-26
2.28488e-26
2.32005e-26
2.35518e-26
2.38975e-26
2.42409e-26
2.45916e-26
2.4911e-26
2.52822e-26
2.56125e-26
2.59534e-26
2.62728e-26
2.66065e-26
2.69232e-26
2.72486e-26
2.75608e-26
2.78785e-26
2.81864e-26
2.84968e-26
2.88001e-26
2.91035e-26
2.94017e-26
2.96986e-26
2.99913e-26
3.02818e-26
3.05687e-26
3.08529e-26
3.11337e-26
3.14115e-26
3.16862e-26
3.19571e-26
3.22258e-26
3.24892e-26
3.27522e-26
3.30085e-26
3.32656e-26
3.35172e-26
3.37664e-26
3.40129e-26
3.42529e-26
3.44915e-26
3.47213e-26
3.49538e-26
3.51644e-26
3.54062e-26
3.56142e-26
3.58534e-26
3.60713e-26
3.62917e-26
3.65043e-26
3.67152e-26
3.69182e-26
3.71184e-26
3.73144e-26
3.75078e-26
3.76781e-26
3.78977e-26
3.80992e-26
3.82805e-26
3.84627e-26
3.86436e-26
3.882e-26
3.89896e-26
3.91504e-26
3.93156e-26
3.94821e-26
3.9655e-26
3.98147e-26
3.99713e-26
4.0122e-26
4.02692e-26
4.04111e-26
4.05499e-26
4.06817e-26
4.08138e-26
4.09347e-26
4.10632e-26
4.1177e-26
4.13363e-26
4.15039e-26
4.16309e-26
4.17626e-26
4.18609e-26
4.20365e-26
4.2228e-26
4.23254e-26
4.24495e-26
4.25606e-26
4.2717e-26
4.28753e-26
4.29979e-26
4.31029e-26
4.32689e-26
4.34498e-26
4.35492e-26
4.36492e-26
4.37566e-26
4.39007e-26
4.40472e-26
4.41604e-26
4.42426e-26
4.43484e-26
4.44717e-26
4.46199e-26
4.46997e-26
4.48036e-26
4.4917e-26
4.50506e-26
4.5142e-26
4.52136e-26
4.5289e-26
4.53981e-26
4.55076e-26
4.55765e-26
4.56368e-26
4.56708e-26
4.57749e-26
4.58803e-26
4.59065e-26
4.59359e-26
4.60308e-26
4.61288e-26
4.61404e-26
4.61655e-26
4.61763e-26
4.62582e-26
4.63356e-26
4.63466e-26
4.63445e-26
4.63515e-26
4.63437e-26
4.53389e-26
4.40417e-26
4.46219e-26
4.37605e-26
4.40363e-26
4.34023e-26
4.25068e-26
4.00074e-26
2.50922e-26
)
;
    }
    outlet
    {
        type            cyclic;
        value           nonuniform List<scalar> 
200
(
-1.46814e-28
-4.41512e-28
-7.34128e-28
-1.03014e-27
-1.32156e-27
-1.6196e-27
-1.99139e-27
-2.36906e-27
-2.73917e-27
-3.11691e-27
-3.48631e-27
-3.86396e-27
-4.23213e-27
-4.60968e-27
-4.97603e-27
-5.35379e-27
-5.71766e-27
-6.09581e-27
-6.45707e-27
-6.83471e-27
-7.19555e-27
-7.57177e-27
-7.93666e-27
-8.31382e-27
-8.68527e-27
-9.06946e-27
-9.44434e-27
-9.84024e-27
-1.021e-26
-1.06205e-26
-1.09807e-26
-1.14059e-26
-1.17684e-26
-1.21947e-26
-1.25705e-26
-1.29854e-26
-1.33706e-26
-1.37785e-26
-1.41666e-26
-1.45727e-26
-1.49594e-26
-1.53608e-26
-1.57468e-26
-1.61419e-26
-1.65275e-26
-1.69177e-26
-1.73009e-26
-1.76865e-26
-1.8067e-26
-1.84482e-26
-1.88254e-26
-1.92024e-26
-1.95761e-26
-1.99487e-26
-2.03187e-26
-2.06868e-26
-2.10529e-26
-2.14163e-26
-2.17782e-26
-2.21369e-26
-2.2494e-26
-2.28488e-26
-2.32005e-26
-2.35518e-26
-2.38975e-26
-2.42409e-26
-2.45916e-26
-2.4911e-26
-2.52822e-26
-2.56125e-26
-2.59534e-26
-2.62728e-26
-2.66065e-26
-2.69232e-26
-2.72486e-26
-2.75608e-26
-2.78785e-26
-2.81864e-26
-2.84968e-26
-2.88001e-26
-2.91035e-26
-2.94017e-26
-2.96986e-26
-2.99913e-26
-3.02818e-26
-3.05687e-26
-3.08529e-26
-3.11337e-26
-3.14115e-26
-3.16862e-26
-3.19571e-26
-3.22258e-26
-3.24892e-26
-3.27522e-26
-3.30085e-26
-3.32656e-26
-3.35172e-26
-3.37664e-26
-3.40129e-26
-3.42529e-26
-3.44915e-26
-3.47213e-26
-3.49538e-26
-3.51644e-26
-3.54062e-26
-3.56142e-26
-3.58534e-26
-3.60713e-26
-3.62917e-26
-3.65043e-26
-3.67152e-26
-3.69182e-26
-3.71184e-26
-3.73144e-26
-3.75078e-26
-3.76781e-26
-3.78977e-26
-3.80992e-26
-3.82805e-26
-3.84627e-26
-3.86436e-26
-3.882e-26
-3.89896e-26
-3.91504e-26
-3.93156e-26
-3.94821e-26
-3.9655e-26
-3.98147e-26
-3.99713e-26
-4.0122e-26
-4.02692e-26
-4.04111e-26
-4.05499e-26
-4.06817e-26
-4.08138e-26
-4.09347e-26
-4.10632e-26
-4.1177e-26
-4.13363e-26
-4.15039e-26
-4.16309e-26
-4.17626e-26
-4.18609e-26
-4.20365e-26
-4.2228e-26
-4.23254e-26
-4.24495e-26
-4.25606e-26
-4.2717e-26
-4.28753e-26
-4.29979e-26
-4.31029e-26
-4.32689e-26
-4.34498e-26
-4.35492e-26
-4.36492e-26
-4.37566e-26
-4.39007e-26
-4.40472e-26
-4.41604e-26
-4.42426e-26
-4.43484e-26
-4.44717e-26
-4.46199e-26
-4.46997e-26
-4.48036e-26
-4.4917e-26
-4.50506e-26
-4.5142e-26
-4.52136e-26
-4.5289e-26
-4.53981e-26
-4.55076e-26
-4.55765e-26
-4.56368e-26
-4.56708e-26
-4.57749e-26
-4.58803e-26
-4.59065e-26
-4.59359e-26
-4.60308e-26
-4.61288e-26
-4.61404e-26
-4.61655e-26
-4.61763e-26
-4.62582e-26
-4.63356e-26
-4.63466e-26
-4.63445e-26
-4.63515e-26
-4.63437e-26
-4.53389e-26
-4.40417e-26
-4.46219e-26
-4.37605e-26
-4.40363e-26
-4.34023e-26
-4.25068e-26
-4.00074e-26
-2.50922e-26
)
;
    }
    top
    {
        type            fixedValue;
        value           uniform 0;
    }
    bottom
    {
        type            fixedValue;
        value           uniform 0;
    }
    backPlane
    {
        type            empty;
        value           nonuniform List<scalar> 0();
    }
    frontPlane
    {
        type            empty;
        value           nonuniform List<scalar> 0();
    }
}


// ************************************************************************* //
