/*--------------------------------*- C++ -*----------------------------------*\
| =========                 |                                                 |
| \\      /  F ield         | OpenFOAM: The Open Source CFD Toolbox           |
|  \\    /   O peration     | Version:  2312                                  |
|   \\  /    A nd           | Website:  www.openfoam.com                      |
|    \\/     M anipulation  |                                                 |
\*---------------------------------------------------------------------------*/
FoamFile
{
    version     2.0;
    format      ascii;
    arch        "LSB;label=32;scalar=64";
    class       volScalarField;
    location    "150";
    object      pS;
}
// * * * * * * * * * * * * * * * * * * * * * * * * * * * * * * * * * * * * * //

dimensions      [1 -1 -2 0 0 0 0];

internalField   nonuniform List<scalar> 
200
(
549.613
544.04
544.072
539.104
537.967
533.75
532.018
528.324
526.129
522.824
520.305
517.251
514.54
511.623
508.811
505.958
503.102
500.271
497.401
494.572
491.699
488.868
485.992
483.159
480.28
477.447
474.562
471.732
468.837
466.014
463.106
460.29
457.375
454.557
451.641
448.819
445.901
443.078
440.155
437.331
434.406
431.577
428.654
425.816
422.897
420.052
417.134
414.283
411.367
408.507
405.594
402.728
399.814
396.946
394.03
391.153
388.247
385.35
382.46
379.544
376.662
373.742
370.85
367.939
365.033
362.128
359.215
356.307
353.396
350.479
347.57
344.65
341.734
338.82
335.89
332.986
330.042
327.144
324.195
321.288
318.353
315.419
312.51
309.547
306.654
303.682
300.782
297.822
294.901
291.957
289.022
286.081
283.142
280.202
277.256
274.321
271.366
268.435
265.477
262.544
259.582
256.656
253.681
250.765
247.786
244.86
241.899
238.951
236.007
233.048
230.108
227.149
224.212
221.244
218.321
215.341
212.425
209.452
206.52
203.572
200.618
197.693
194.727
191.811
188.845
185.935
182.971
180.063
177.107
174.198
171.252
168.347
165.402
162.507
159.568
156.673
153.754
150.849
147.955
145.045
142.162
139.267
136.385
133.503
130.63
127.759
124.896
122.031
119.189
116.329
113.496
110.655
107.827
105.003
102.185
99.3745
96.5663
93.773
90.9741
88.1916
85.4107
82.6318
79.8661
77.1026
74.3403
71.598
68.8361
66.0994
63.3635
60.618
57.8983
55.1628
52.4409
49.7174
46.9933
44.2882
41.5618
38.8533
36.1413
33.4231
30.721
27.9915
25.2814
22.5221
19.7863
16.9915
14.1195
11.5574
7.93514
5.61448
2.01835
0.497823
0.537215
0.543659
0.544132
0.544212
0.544239
0.544243
0.544243
0.544242
)
;

boundaryField
{
    inlet
    {
        type            cyclic;
    }
    outlet
    {
        type            cyclic;
    }
    top
    {
        type            calculated;
        value           uniform 0.544242;
    }
    bottom
    {
        type            calculated;
        value           uniform 549.613;
    }
    backPlane
    {
        type            empty;
    }
    frontPlane
    {
        type            empty;
    }
}


// ************************************************************************* //
