/*--------------------------------*- C++ -*----------------------------------*\
| =========                 |                                                 |
| \\      /  F ield         | OpenFOAM: The Open Source CFD Toolbox           |
|  \\    /   O peration     | Version:  2312                                  |
|   \\  /    A nd           | Website:  www.openfoam.com                      |
|    \\/     M anipulation  |                                                 |
\*---------------------------------------------------------------------------*/
FoamFile
{
    version     2.0;
    format      ascii;
    arch        "LSB;label=32;scalar=64";
    class       volVectorField;
    location    "150";
    object      U.a;
}
// * * * * * * * * * * * * * * * * * * * * * * * * * * * * * * * * * * * * * //

dimensions      [0 1 -1 0 0 0 0];

internalField   nonuniform List<vector> 
200
(
(-4.07816e-24 -1.75035e-09 0)
(-1.22642e-23 -7.54829e-09 0)
(-2.03925e-23 -1.31603e-08 0)
(-2.86151e-23 -1.81467e-08 0)
(-3.67101e-23 -2.3629e-08 0)
(-4.4989e-23 -2.88169e-08 0)
(-5.53163e-23 -3.43309e-08 0)
(-6.58072e-23 -3.96281e-08 0)
(-7.60879e-23 -4.51847e-08 0)
(-8.6581e-23 -5.05965e-08 0)
(-9.6842e-23 -5.6196e-08 0)
(-1.07332e-22 -6.17219e-08 0)
(-1.17559e-22 -6.73723e-08 0)
(-1.28047e-22 -7.30031e-08 0)
(-1.38223e-22 -7.8717e-08 0)
(-1.48717e-22 -8.44445e-08 0)
(-1.58824e-22 -9.02309e-08 0)
(-1.69328e-22 -9.60507e-08 0)
(-1.79363e-22 -1.01917e-07 0)
(-1.89853e-22 -1.07825e-07 0)
(-1.99876e-22 -1.13777e-07 0)
(-2.10327e-22 -1.19772e-07 0)
(-2.20463e-22 -1.25812e-07 0)
(-2.3094e-22 -1.31896e-07 0)
(-2.41258e-22 -1.38026e-07 0)
(-2.51929e-22 -1.442e-07 0)
(-2.62343e-22 -1.50422e-07 0)
(-2.7334e-22 -1.56687e-07 0)
(-2.83612e-22 -1.63004e-07 0)
(-2.95013e-22 -1.69362e-07 0)
(-3.05021e-22 -1.75772e-07 0)
(-3.16831e-22 -1.82227e-07 0)
(-3.269e-22 -1.88732e-07 0)
(-3.38741e-22 -1.95286e-07 0)
(-3.4918e-22 -2.01888e-07 0)
(-3.60706e-22 -2.08541e-07 0)
(-3.71405e-22 -2.15244e-07 0)
(-3.82737e-22 -2.21996e-07 0)
(-3.93516e-22 -2.28801e-07 0)
(-4.04798e-22 -2.35657e-07 0)
(-4.15539e-22 -2.42564e-07 0)
(-4.26688e-22 -2.49526e-07 0)
(-4.37412e-22 -2.56538e-07 0)
(-4.48387e-22 -2.63606e-07 0)
(-4.59097e-22 -2.70726e-07 0)
(-4.69935e-22 -2.77902e-07 0)
(-4.80581e-22 -2.85131e-07 0)
(-4.91293e-22 -2.92418e-07 0)
(-5.0186e-22 -2.99757e-07 0)
(-5.12451e-22 -3.07156e-07 0)
(-5.22929e-22 -3.1461e-07 0)
(-5.334e-22 -3.22121e-07 0)
(-5.43781e-22 -3.29691e-07 0)
(-5.54131e-22 -3.37319e-07 0)
(-5.64409e-22 -3.45004e-07 0)
(-5.74633e-22 -3.52753e-07 0)
(-5.84804e-22 -3.60554e-07 0)
(-5.94896e-22 -3.68426e-07 0)
(-6.04951e-22 -3.76348e-07 0)
(-6.14914e-22 -3.84339e-07 0)
(-6.24834e-22 -3.92389e-07 0)
(-6.34689e-22 -4.00499e-07 0)
(-6.44459e-22 -4.08677e-07 0)
(-6.54217e-22 -4.16912e-07 0)
(-6.6382e-22 -4.25217e-07 0)
(-6.73359e-22 -4.33582e-07 0)
(-6.831e-22 -4.42013e-07 0)
(-6.91973e-22 -4.5051e-07 0)
(-7.02283e-22 -4.59071e-07 0)
(-7.11459e-22 -4.677e-07 0)
(-7.20927e-22 -4.76394e-07 0)
(-7.29801e-22 -4.85155e-07 0)
(-7.39071e-22 -4.93987e-07 0)
(-7.47868e-22 -5.02881e-07 0)
(-7.56904e-22 -5.1185e-07 0)
(-7.65577e-22 -5.20881e-07 0)
(-7.74403e-22 -5.29987e-07 0)
(-7.82955e-22 -5.39159e-07 0)
(-7.91577e-22 -5.48401e-07 0)
(-8.00002e-22 -5.57718e-07 0)
(-8.0843e-22 -5.67096e-07 0)
(-8.16714e-22 -5.76558e-07 0)
(-8.2496e-22 -5.86077e-07 0)
(-8.33092e-22 -5.9568e-07 0)
(-8.41161e-22 -6.05348e-07 0)
(-8.4913e-22 -6.15088e-07 0)
(-8.57025e-22 -6.24905e-07 0)
(-8.64825e-22 -6.34786e-07 0)
(-8.72542e-22 -6.4475e-07 0)
(-8.80172e-22 -6.54778e-07 0)
(-8.87698e-22 -6.64884e-07 0)
(-8.95162e-22 -6.7506e-07 0)
(-9.02477e-22 -6.85311e-07 0)
(-9.09783e-22 -6.95632e-07 0)
(-9.16904e-22 -7.06029e-07 0)
(-9.24045e-22 -7.16495e-07 0)
(-9.31035e-22 -7.27037e-07 0)
(-9.37955e-22 -7.37649e-07 0)
(-9.44802e-22 -7.48333e-07 0)
(-9.5147e-22 -7.59089e-07 0)
(-9.58098e-22 -7.69918e-07 0)
(-9.6448e-22 -7.80813e-07 0)
(-9.70939e-22 -7.91784e-07 0)
(-9.76789e-22 -8.02821e-07 0)
(-9.83506e-22 -8.13925e-07 0)
(-9.89282e-22 -8.25105e-07 0)
(-9.95929e-22 -8.36341e-07 0)
(-1.00198e-21 -8.47654e-07 0)
(-1.0081e-21 -8.59025e-07 0)
(-1.01401e-21 -8.70464e-07 0)
(-1.01987e-21 -8.81965e-07 0)
(-1.02551e-21 -8.93528e-07 0)
(-1.03107e-21 -9.05148e-07 0)
(-1.03651e-21 -9.16833e-07 0)
(-1.04188e-21 -9.28567e-07 0)
(-1.04661e-21 -9.40362e-07 0)
(-1.05271e-21 -9.5221e-07 0)
(-1.05831e-21 -9.64102e-07 0)
(-1.06335e-21 -9.76055e-07 0)
(-1.06841e-21 -9.8804e-07 0)
(-1.07343e-21 -1.00008e-06 0)
(-1.07833e-21 -1.01216e-06 0)
(-1.08305e-21 -1.02427e-06 0)
(-1.08751e-21 -1.03642e-06 0)
(-1.0921e-21 -1.0486e-06 0)
(-1.09672e-21 -1.06081e-06 0)
(-1.10153e-21 -1.07305e-06 0)
(-1.10597e-21 -1.0853e-06 0)
(-1.11031e-21 -1.09757e-06 0)
(-1.1145e-21 -1.10986e-06 0)
(-1.11859e-21 -1.12215e-06 0)
(-1.12253e-21 -1.13444e-06 0)
(-1.12639e-21 -1.14674e-06 0)
(-1.13005e-21 -1.15902e-06 0)
(-1.13372e-21 -1.1713e-06 0)
(-1.13707e-21 -1.18355e-06 0)
(-1.14064e-21 -1.19578e-06 0)
(-1.14381e-21 -1.20798e-06 0)
(-1.14823e-21 -1.22014e-06 0)
(-1.15289e-21 -1.23226e-06 0)
(-1.15642e-21 -1.24433e-06 0)
(-1.16007e-21 -1.25634e-06 0)
(-1.1628e-21 -1.26828e-06 0)
(-1.16768e-21 -1.28016e-06 0)
(-1.173e-21 -1.29195e-06 0)
(-1.1757e-21 -1.30365e-06 0)
(-1.17915e-21 -1.31525e-06 0)
(-1.18224e-21 -1.32674e-06 0)
(-1.18658e-21 -1.33812e-06 0)
(-1.19098e-21 -1.34938e-06 0)
(-1.19439e-21 -1.3605e-06 0)
(-1.1973e-21 -1.37148e-06 0)
(-1.20191e-21 -1.3823e-06 0)
(-1.20694e-21 -1.39297e-06 0)
(-1.2097e-21 -1.40346e-06 0)
(-1.21248e-21 -1.41377e-06 0)
(-1.21546e-21 -1.42389e-06 0)
(-1.21946e-21 -1.4338e-06 0)
(-1.22353e-21 -1.44351e-06 0)
(-1.22668e-21 -1.453e-06 0)
(-1.22896e-21 -1.46225e-06 0)
(-1.2319e-21 -1.47127e-06 0)
(-1.23532e-21 -1.48004e-06 0)
(-1.23944e-21 -1.48856e-06 0)
(-1.24166e-21 -1.49681e-06 0)
(-1.24455e-21 -1.50478e-06 0)
(-1.24769e-21 -1.51248e-06 0)
(-1.25141e-21 -1.5199e-06 0)
(-1.25395e-21 -1.52701e-06 0)
(-1.25593e-21 -1.53383e-06 0)
(-1.25803e-21 -1.54035e-06 0)
(-1.26106e-21 -1.54655e-06 0)
(-1.2641e-21 -1.55243e-06 0)
(-1.26601e-21 -1.558e-06 0)
(-1.26769e-21 -1.56325e-06 0)
(-1.26863e-21 -1.56817e-06 0)
(-1.27152e-21 -1.57275e-06 0)
(-1.27445e-21 -1.57701e-06 0)
(-1.27518e-21 -1.58092e-06 0)
(-1.276e-21 -1.58452e-06 0)
(-1.27863e-21 -1.58777e-06 0)
(-1.28135e-21 -1.5907e-06 0)
(-1.28168e-21 -1.5933e-06 0)
(-1.28237e-21 -1.59561e-06 0)
(-1.28267e-21 -1.59763e-06 0)
(-1.28495e-21 -1.59942e-06 0)
(-1.2871e-21 -1.60108e-06 0)
(-1.2874e-21 -1.60235e-06 0)
(-1.28735e-21 -1.60404e-06 0)
(-1.28754e-21 -1.60543e-06 0)
(-1.28733e-21 -1.60915e-06 0)
(-1.25941e-21 -2.04975e-06 0)
(-1.22338e-21 -2.01471e-06 0)
(-1.2395e-21 -1.99483e-06 0)
(-1.21557e-21 -2.01784e-06 0)
(-1.22323e-21 -1.96086e-06 0)
(-1.20562e-21 -1.98548e-06 0)
(-1.18074e-21 -1.91958e-06 0)
(-1.11132e-21 -1.80785e-06 0)
(-6.97007e-22 -1.13397e-06 0)
)
;

boundaryField
{
    inlet
    {
        type            cyclic;
    }
    outlet
    {
        type            cyclic;
    }
    top
    {
        type            fixedValue;
        value           uniform (0 0 0);
    }
    bottom
    {
        type            fixedValue;
        value           uniform (0 0 0);
    }
    backPlane
    {
        type            empty;
    }
    frontPlane
    {
        type            empty;
    }
}


// ************************************************************************* //
