/*--------------------------------*- C++ -*----------------------------------*\
| =========                 |                                                 |
| \\      /  F ield         | OpenFOAM: The Open Source CFD Toolbox           |
|  \\    /   O peration     | Version:  2312                                  |
|   \\  /    A nd           | Website:  www.openfoam.com                      |
|    \\/     M anipulation  |                                                 |
\*---------------------------------------------------------------------------*/
FoamFile
{
    version     2.0;
    format      ascii;
    arch        "LSB;label=32;scalar=64";
    class       volVectorField;
    location    "150";
    object      U.b;
}
// * * * * * * * * * * * * * * * * * * * * * * * * * * * * * * * * * * * * * //

dimensions      [0 1 -1 0 0 0 0];

internalField   nonuniform List<vector> 
200
(
(-4.41134e-24 4.38677e-09 0)
(-1.3259e-23 1.31587e-08 0)
(-2.21613e-23 2.19996e-08 0)
(-3.11688e-23 3.0914e-08 0)
(-4.02977e-23 3.98903e-08 0)
(-4.96003e-23 4.89336e-08 0)
(-5.9122e-23 5.80359e-08 0)
(-6.88956e-23 6.72069e-08 0)
(-7.88518e-23 7.64394e-08 0)
(-8.89485e-23 8.57405e-08 0)
(-9.90718e-23 9.51047e-08 0)
(-1.09251e-22 1.04538e-07 0)
(-1.19194e-22 1.14036e-07 0)
(-1.29396e-22 1.23604e-07 0)
(-1.39688e-22 1.33238e-07 0)
(-1.50043e-22 1.42943e-07 0)
(-1.60424e-22 1.52716e-07 0)
(-1.70629e-22 1.6256e-07 0)
(-1.80861e-22 1.72474e-07 0)
(-1.91207e-22 1.8246e-07 0)
(-2.01567e-22 1.92518e-07 0)
(-2.12065e-22 2.02648e-07 0)
(-2.21826e-22 2.12852e-07 0)
(-2.31839e-22 2.23129e-07 0)
(-2.41595e-22 2.33482e-07 0)
(-2.51435e-22 2.43909e-07 0)
(-2.62373e-22 2.54413e-07 0)
(-2.73258e-22 2.64992e-07 0)
(-2.84106e-22 2.7565e-07 0)
(-2.94985e-22 2.86385e-07 0)
(-3.05927e-22 2.97199e-07 0)
(-3.16688e-22 3.08092e-07 0)
(-3.2736e-22 3.19065e-07 0)
(-3.38443e-22 3.30119e-07 0)
(-3.49288e-22 3.41254e-07 0)
(-3.60249e-22 3.52471e-07 0)
(-3.71204e-22 3.63771e-07 0)
(-3.81944e-22 3.75155e-07 0)
(-3.92677e-22 3.86623e-07 0)
(-4.03364e-22 3.98176e-07 0)
(-4.13833e-22 4.09815e-07 0)
(-4.24425e-22 4.21541e-07 0)
(-4.34733e-22 4.33354e-07 0)
(-4.4488e-22 4.45255e-07 0)
(-4.54783e-22 4.57245e-07 0)
(-4.6442e-22 4.69324e-07 0)
(-4.73697e-22 4.81494e-07 0)
(-4.82555e-22 4.93754e-07 0)
(-4.90875e-22 5.06107e-07 0)
(-4.98542e-22 5.18553e-07 0)
(-5.05383e-22 5.31091e-07 0)
(-5.15277e-22 5.43724e-07 0)
(-5.28289e-22 5.56453e-07 0)
(-5.40391e-22 5.69276e-07 0)
(-5.51678e-22 5.82197e-07 0)
(-5.66687e-22 5.95215e-07 0)
(-5.81206e-22 6.08331e-07 0)
(-5.90778e-22 6.21546e-07 0)
(-6.00069e-22 6.3486e-07 0)
(-6.13926e-22 6.48276e-07 0)
(-6.2768e-22 6.61792e-07 0)
(-6.4153e-22 6.7541e-07 0)
(-6.45254e-22 6.89132e-07 0)
(-6.38271e-22 7.02956e-07 0)
(-6.41204e-22 7.16885e-07 0)
(-6.4832e-22 7.3092e-07 0)
(-6.53913e-22 7.45059e-07 0)
(-6.57974e-22 7.59306e-07 0)
(-6.71808e-22 7.73659e-07 0)
(-6.83902e-22 7.88121e-07 0)
(-6.94337e-22 8.02691e-07 0)
(-7.03075e-22 8.17371e-07 0)
(-7.2302e-22 8.3216e-07 0)
(-7.42015e-22 8.4706e-07 0)
(-7.4741e-22 8.62072e-07 0)
(-7.52153e-22 8.77195e-07 0)
(-7.56102e-22 8.92431e-07 0)
(-7.58892e-22 9.07779e-07 0)
(-7.60274e-22 9.23241e-07 0)
(-7.74256e-22 9.38817e-07 0)
(-7.86733e-22 9.54508e-07 0)
(-7.97881e-22 9.70314e-07 0)
(-8.07898e-22 9.86234e-07 0)
(-8.1686e-22 1.00227e-06 0)
(-8.2482e-22 1.01842e-06 0)
(-8.31764e-22 1.03469e-06 0)
(-8.37645e-22 1.05108e-06 0)
(-8.42304e-22 1.06758e-06 0)
(-8.45637e-22 1.0842e-06 0)
(-8.47285e-22 1.10093e-06 0)
(-8.12097e-22 1.11779e-06 0)
(-8.07866e-22 1.13476e-06 0)
(-8.34672e-22 1.15184e-06 0)
(-8.57542e-22 1.16904e-06 0)
(-8.77105e-22 1.18636e-06 0)
(-8.94806e-22 1.2038e-06 0)
(-9.09727e-22 1.22135e-06 0)
(-9.23306e-22 1.23901e-06 0)
(-9.36459e-22 1.25679e-06 0)
(-9.48479e-22 1.27469e-06 0)
(-9.61216e-22 1.29269e-06 0)
(-9.73986e-22 1.31081e-06 0)
(-9.86852e-22 1.32904e-06 0)
(-1.00059e-21 1.34738e-06 0)
(-9.93881e-22 1.36582e-06 0)
(-9.87699e-22 1.38438e-06 0)
(-1.00362e-21 1.40304e-06 0)
(-1.01995e-21 1.4218e-06 0)
(-1.03724e-21 1.44066e-06 0)
(-1.03289e-21 1.45962e-06 0)
(-1.02951e-21 1.47868e-06 0)
(-1.02658e-21 1.49784e-06 0)
(-1.02359e-21 1.51709e-06 0)
(-1.01998e-21 1.53642e-06 0)
(-1.01534e-21 1.55584e-06 0)
(-1.00891e-21 1.57535e-06 0)
(-9.74555e-22 1.59493e-06 0)
(-9.61341e-22 1.61459e-06 0)
(-9.42411e-22 1.63432e-06 0)
(-9.69613e-22 1.65412e-06 0)
(-9.90961e-22 1.67398e-06 0)
(-1.00727e-21 1.69389e-06 0)
(-1.01936e-21 1.71386e-06 0)
(-1.00014e-21 1.73388e-06 0)
(-9.16658e-22 1.75394e-06 0)
(-9.38079e-22 1.77403e-06 0)
(-9.52124e-22 1.79415e-06 0)
(-9.56049e-22 1.8143e-06 0)
(-9.8109e-22 1.83446e-06 0)
(-9.98285e-22 1.85462e-06 0)
(-1.00846e-21 1.87479e-06 0)
(-1.0119e-21 1.89494e-06 0)
(-1.0086e-21 1.91508e-06 0)
(-1.03005e-21 1.9352e-06 0)
(-1.07776e-21 1.95527e-06 0)
(-1.12206e-21 1.9753e-06 0)
(-1.16537e-21 1.99527e-06 0)
(-1.21017e-21 2.01518e-06 0)
(-1.2569e-21 2.03501e-06 0)
(-1.2759e-21 2.05474e-06 0)
(-1.3043e-21 2.07438e-06 0)
(-1.34152e-21 2.0939e-06 0)
(-1.38986e-21 2.11329e-06 0)
(-1.44978e-21 2.13254e-06 0)
(-1.45466e-21 2.15164e-06 0)
(-1.47839e-21 2.17056e-06 0)
(-1.52084e-21 2.1893e-06 0)
(-1.58399e-21 2.20785e-06 0)
(-1.66984e-21 2.22618e-06 0)
(-1.6327e-21 2.24428e-06 0)
(-1.62484e-21 2.26213e-06 0)
(-1.64389e-21 2.27972e-06 0)
(-1.68656e-21 2.29703e-06 0)
(-1.68011e-21 2.31405e-06 0)
(-1.70626e-21 2.33075e-06 0)
(-1.76353e-21 2.34712e-06 0)
(-1.77376e-21 2.36315e-06 0)
(-1.8149e-21 2.37882e-06 0)
(-1.81009e-21 2.3941e-06 0)
(-1.84613e-21 2.40898e-06 0)
(-1.91987e-21 2.42345e-06 0)
(-1.8675e-21 2.43749e-06 0)
(-1.85081e-21 2.45109e-06 0)
(-1.87321e-21 2.46422e-06 0)
(-1.85251e-21 2.47687e-06 0)
(-1.86904e-21 2.48902e-06 0)
(-1.92334e-21 2.50067e-06 0)
(-1.84142e-21 2.51179e-06 0)
(-1.79822e-21 2.52238e-06 0)
(-1.79112e-21 2.53242e-06 0)
(-1.81806e-21 2.54189e-06 0)
(-1.87976e-21 2.55078e-06 0)
(-1.88912e-21 2.55909e-06 0)
(-1.94075e-21 2.56679e-06 0)
(-2.03716e-21 2.57388e-06 0)
(-1.99526e-21 2.58033e-06 0)
(-1.99714e-21 2.58614e-06 0)
(-1.95071e-21 2.5913e-06 0)
(-1.95319e-21 2.59577e-06 0)
(-2.00058e-21 2.59955e-06 0)
(-1.89698e-21 2.6026e-06 0)
(-1.93307e-21 2.60492e-06 0)
(-1.91825e-21 2.60647e-06 0)
(-1.84553e-21 2.60725e-06 0)
(-1.81069e-21 2.60673e-06 0)
(-1.81002e-21 2.60478e-06 0)
(-1.74416e-21 2.60317e-06 0)
(-1.71077e-21 2.61012e-06 0)
(-1.70996e-21 2.63014e-06 0)
(-1.73482e-21 2.57604e-06 0)
(-1.79785e-21 2.21845e-06 0)
(-1.76025e-21 1.62507e-06 0)
(-1.64439e-21 -8.46255e-08 0)
(-1.33014e-21 -1.26116e-07 0)
(-1.25378e-21 2.94236e-08 0)
(-1.03127e-21 -2.07956e-09 0)
(-8.0451e-22 -2.72774e-11 0)
(-5.75578e-22 -4.26017e-11 0)
(-3.45636e-22 -5.33487e-12 0)
(-1.15248e-22 -1.06209e-11 0)
)
;

boundaryField
{
    inlet
    {
        type            cyclic;
    }
    outlet
    {
        type            cyclic;
    }
    top
    {
        type            fixedValue;
        value           uniform (0 0 0);
    }
    bottom
    {
        type            fixedValue;
        value           uniform (0 0 0);
    }
    backPlane
    {
        type            empty;
    }
    frontPlane
    {
        type            empty;
    }
}


// ************************************************************************* //
